# vtk DataFile Version 4.0
vtk output
ASCII
DATASET UNSTRUCTURED_GRID
POINTS 2 float
0.313388 0.1945 0.338 0.313388 -0.1945 0.338 
CELLS 1 3
2 1 0 

CELL_TYPES 1
3

CELL_DATA 1
SCALARS STLSolidLabeling float
LOOKUP_TABLE default
0 
FIELD FieldData 1
vtkOriginalCellIds 1 1 vtkIdType
1362 
POINT_DATA 2
FIELD FieldData 1
vtkOriginalPointIds 1 2 vtkIdType
1260 1361 
